
     Program BANDS v.7.1 starts on  7Jun2023 at  9:33:30 

     This program is part of the open-source Quantum ESPRESSO suite
     for quantum simulation of materials; please cite
         "P. Giannozzi et al., J. Phys.:Condens. Matter 21 395502 (2009);
         "P. Giannozzi et al., J. Phys.:Condens. Matter 29 465901 (2017);
         "P. Giannozzi et al., J. Chem. Phys. 152 154105 (2020);
          URL http://www.quantum-espresso.org", 
     in publications or presentations arising from this work. More details at
     http://www.quantum-espresso.org/quote

     Parallel version (MPI), running on     1 processors

     MPI processes distributed on     1 nodes
     0 MiB available memory on the printing compute node when the environment starts


     Reading xml data from directory:

     tmp/Si.save/

     IMPORTANT: XC functional enforced from input :
     Exchange-correlation= PZ
                           (   1   1   0   0   0   0   0)
     Any further DFT definition will be discarded
     Please, verify this is what you really want


     G-vector sticks info
     --------------------
     sticks:   dense  smooth     PW     G-vecs:    dense   smooth      PW
     Sum         253     253     85                 2733     2733     531

     Using Slab Decomposition

     Reading collected, re-writing distributed wavefunctions
     high-symmetry point:  0.0000 0.0000 0.0000   x coordinate   0.0000
     high-symmetry point:  0.0000 1.0000 0.0000   x coordinate   1.0000
     high-symmetry point: -0.2500 1.0000 0.2500   x coordinate   1.3536
     high-symmetry point:  0.0000 0.7500 0.7500   x coordinate   1.9659
     high-symmetry point:  0.0000 0.0000 0.0000   x coordinate   3.0266

     Plottable bands (eV) written to file bands.out.gnu
     Bands written to file bands.out

 **************************************************************************

                    xk=(   0.00000,   0.00000,   0.00000  )

     point group O_h (m-3m) 
     there are 10 classes
     the character table:

       E     8C3   3C2   6C4   6C2'  i     8S6   3s_h  6S4   6s_d 
A_1g   1.00  1.00  1.00  1.00  1.00  1.00  1.00  1.00  1.00  1.00
A_2g   1.00  1.00  1.00 -1.00 -1.00  1.00  1.00  1.00 -1.00 -1.00
E_g    2.00 -1.00  2.00  0.00  0.00  2.00 -1.00  2.00  0.00  0.00
T_1g   3.00  0.00 -1.00  1.00 -1.00  3.00  0.00 -1.00  1.00 -1.00
T_2g   3.00  0.00 -1.00 -1.00  1.00  3.00  0.00 -1.00 -1.00  1.00
A_1u   1.00  1.00  1.00  1.00  1.00 -1.00 -1.00 -1.00 -1.00 -1.00
A_2u   1.00  1.00  1.00 -1.00 -1.00 -1.00 -1.00 -1.00  1.00  1.00
E_u    2.00 -1.00  2.00  0.00  0.00 -2.00  1.00 -2.00  0.00  0.00
T_1u   3.00  0.00 -1.00  1.00 -1.00 -3.00  0.00  1.00 -1.00  1.00
T_2u   3.00  0.00 -1.00 -1.00  1.00 -3.00  0.00  1.00  1.00 -1.00

     the symmetry operations in each class and the name of the first element:

     E        1
                                                                 
     8C3     17   19   20   18   24   21   22   23
                                                                 
     3C2      2    4    3
                                                                 
     6C4      7    8   15   16   12   11
                                                                 
     6C2'     5    6   14   13   10    9
                                                                 
     i       25
                                                                 
     8S6     41   43   44   42   48   45   46   47
                                                                 
     3s_h    26   28   27
                                                                 
     6S4     31   32   39   40   36   35
                                                                 
     6s_d    29   30   38   37   34   33
                                                                 

     Band symmetry, O_h (m-3m)  point group:

     e(  1 -  1) =     -5.78255  eV     1   --> A_1g G_1   G_1+
     e(  2 -  4) =      6.29272  eV     3   --> T_2g G_25' G_5+
     e(  5 -  7) =      8.84262  eV     3   --> T_1u G_15  G_4-
     e(  8 -  8) =      9.76015  eV     1   --> A_2u G_2'  G_2-

 **************************************************************************

 **************************************************************************

                    xk=(   0.00000,   0.05000,   0.00000  )

     point group C_4v (4mm) 
     there are  5 classes
     the character table:

       E     2C4   C2    2s_v  2s_d 
A_1    1.00  1.00  1.00  1.00  1.00
A_2    1.00  1.00  1.00 -1.00 -1.00
B_1    1.00 -1.00  1.00  1.00 -1.00
B_2    1.00 -1.00  1.00 -1.00  1.00
E      2.00  0.00 -2.00  0.00  0.00

     the symmetry operations in each class and the name of the first element:

     E        1
                                                                 
     2C4      3    4
                                                                 
     C2       2
                                                                 
     2s_v     5    6
                                                                 
     2s_d     7    8
                                                                 

     Band symmetry, C_4v (4mm)  point group:

     e(  1 -  1) =     -5.77142  eV     1   --> A_1  G_1 D_1   
     e(  2 -  2) =      6.22052  eV     1   --> B_2  G_4 D_2'  
     e(  3 -  4) =      6.24367  eV     2   --> E    G_5 D_5   
     e(  5 -  5) =      8.81377  eV     1   --> A_1  G_1 D_1   
     e(  6 -  7) =      8.90520  eV     2   --> E    G_5 D_5   
     e(  8 -  8) =      9.83026  eV     1   --> B_2  G_4 D_2'  

 **************************************************************************

 **************************************************************************

                    xk=(   0.00000,   0.10000,   0.00000  )

     Band symmetry, C_4v (4mm)  point group:

     e(  1 -  1) =     -5.73942  eV     1   --> A_1  G_1 D_1   
     e(  2 -  2) =      6.01872  eV     1   --> B_2  G_4 D_2'  
     e(  3 -  4) =      6.10855  eV     2   --> E    G_5 D_5   
     e(  5 -  5) =      8.73057  eV     1   --> A_1  G_1 D_1   
     e(  6 -  7) =      9.07921  eV     2   --> E    G_5 D_5   
     e(  8 -  8) =     10.02079  eV     1   --> B_2  G_4 D_2'  

 **************************************************************************

 **************************************************************************

                    xk=(   0.00000,   0.15000,   0.00000  )

     Band symmetry, C_4v (4mm)  point group:

     e(  1 -  1) =     -5.68388  eV     1   --> A_1  G_1 D_1   
     e(  2 -  2) =      5.72530  eV     1   --> B_2  G_4 D_2'  
     e(  3 -  4) =      5.91717  eV     2   --> E    G_5 D_5   
     e(  5 -  5) =      8.60299  eV     1   --> A_1  G_1 D_1   
     e(  6 -  7) =      9.33785  eV     2   --> E    G_5 D_5   
     e(  8 -  8) =     10.28391  eV     1   --> B_2  G_4 D_2'  

 **************************************************************************

 **************************************************************************

                    xk=(   0.00000,   0.20000,   0.00000  )

     Band symmetry, C_4v (4mm)  point group:

     e(  1 -  1) =     -5.60621  eV     1   --> A_1  G_1 D_1   
     e(  2 -  2) =      5.37143  eV     1   --> B_2  G_4 D_2'  
     e(  3 -  4) =      5.69402  eV     2   --> E    G_5 D_5   
     e(  5 -  5) =      8.44295  eV     1   --> A_1  G_1 D_1   
     e(  6 -  7) =      9.65469  eV     2   --> E    G_5 D_5   
     e(  8 -  8) =     10.55501  eV     1   --> B_2  G_4 D_2'  

 **************************************************************************

 **************************************************************************

                    xk=(   0.00000,   0.25000,   0.00000  )

     Band symmetry, C_4v (4mm)  point group:

     e(  1 -  1) =     -5.50651  eV     1   --> A_1  G_1 D_1   
     e(  2 -  2) =      4.97985  eV     1   --> B_2  G_4 D_2'  
     e(  3 -  4) =      5.45704  eV     2   --> E    G_5 D_5   
     e(  5 -  5) =      8.26250  eV     1   --> A_1  G_1 D_1   
     e(  6 -  7) =     10.01138  eV     2   --> E    G_5 D_5   
     e(  8 -  8) =     10.74076  eV     1   --> B_2  G_4 D_2'  

 **************************************************************************

 **************************************************************************

                    xk=(   0.00000,   0.30000,   0.00000  )

     Band symmetry, C_4v (4mm)  point group:

     e(  1 -  1) =     -5.38554  eV     1   --> A_1  G_1 D_1   
     e(  2 -  2) =      4.56386  eV     1   --> B_2  G_4 D_2'  
     e(  3 -  4) =      5.21789  eV     2   --> E    G_5 D_5   
     e(  5 -  5) =      8.06961  eV     1   --> A_1  G_1 D_1   
     e(  6 -  7) =     10.39632  eV     2   --> E    G_5 D_5   
     e(  8 -  8) =     10.73266  eV     1   --> B_2  G_4 D_2'  

 **************************************************************************

 **************************************************************************

                    xk=(   0.00000,   0.35000,   0.00000  )

     Band symmetry, C_4v (4mm)  point group:

     e(  1 -  1) =     -5.24226  eV     1   --> A_1  G_1 D_1   
     e(  2 -  2) =      4.13364  eV     1   --> B_2  G_4 D_2'  
     e(  3 -  4) =      4.98315  eV     2   --> E    G_5 D_5   
     e(  5 -  5) =      7.87717  eV     1   --> A_1  G_1 D_1   
     e(  6 -  6) =     10.50430  eV     1   --> B_2  G_4 D_2'  
     e(  7 -  8) =     10.80119  eV     2   --> E    G_5 D_5   

 **************************************************************************

 **************************************************************************

                    xk=(   0.00000,   0.40000,   0.00000  )

     Band symmetry, C_4v (4mm)  point group:

     e(  1 -  1) =     -5.07833  eV     1   --> A_1  G_1 D_1   
     e(  2 -  2) =      3.68984  eV     1   --> B_2  G_4 D_2'  
     e(  3 -  4) =      4.75732  eV     2   --> E    G_5 D_5   
     e(  5 -  5) =      7.68933  eV     1   --> A_1  G_1 D_1   
     e(  6 -  6) =     10.15319  eV     1   --> B_2  G_4 D_2'  
     e(  7 -  8) =     11.21453  eV     2   --> E    G_5 D_5   

 **************************************************************************

 **************************************************************************

                    xk=(   0.00000,   0.45000,   0.00000  )

     Band symmetry, C_4v (4mm)  point group:

     e(  1 -  1) =     -4.89142  eV     1   --> A_1  G_1 D_1   
     e(  2 -  2) =      3.24333  eV     1   --> B_2  G_4 D_2'  
     e(  3 -  4) =      4.54437  eV     2   --> E    G_5 D_5   
     e(  5 -  5) =      7.51184  eV     1   --> A_1  G_1 D_1   
     e(  6 -  6) =      9.76365  eV     1   --> B_2  G_4 D_2'  
     e(  7 -  8) =     11.64792  eV     2   --> E    G_5 D_5   

 **************************************************************************

 **************************************************************************

                    xk=(   0.00000,   0.50000,   0.00000  )

     Band symmetry, C_4v (4mm)  point group:

     e(  1 -  1) =     -4.68446  eV     1   --> A_1  G_1 D_1   
     e(  2 -  2) =      2.79285  eV     1   --> B_2  G_4 D_2'  
     e(  3 -  4) =      4.34587  eV     2   --> E    G_5 D_5   
     e(  5 -  5) =      7.34763  eV     1   --> A_1  G_1 D_1   
     e(  6 -  6) =      9.36783  eV     1   --> B_2  G_4 D_2'  
     e(  7 -  8) =     12.08834  eV     2   --> E    G_5 D_5   

 **************************************************************************

 **************************************************************************

                    xk=(   0.00000,   0.55000,   0.00000  )

     Band symmetry, C_4v (4mm)  point group:

     e(  1 -  1) =     -4.45687  eV     1   --> A_1  G_1 D_1   
     e(  2 -  2) =      2.34035  eV     1   --> B_2  G_4 D_2'  
     e(  3 -  4) =      4.16341  eV     2   --> E    G_5 D_5   
     e(  5 -  5) =      7.20001  eV     1   --> A_1  G_1 D_1   
     e(  6 -  6) =      8.98644  eV     1   --> B_2  G_4 D_2'  
     e(  7 -  8) =     12.53635  eV     2   --> E    G_5 D_5   

 **************************************************************************

 **************************************************************************

                    xk=(   0.00000,   0.60000,   0.00000  )

     Band symmetry, C_4v (4mm)  point group:

     e(  1 -  1) =     -4.20689  eV     1   --> A_1  G_1 D_1   
     e(  2 -  2) =      1.88745  eV     1   --> B_2  G_4 D_2'  
     e(  3 -  4) =      3.99847  eV     2   --> E    G_5 D_5   
     e(  5 -  5) =      7.07173  eV     1   --> A_1  G_1 D_1   
     e(  6 -  6) =      8.62873  eV     1   --> B_2  G_4 D_2'  
     e(  7 -  8) =     12.99112  eV     2   --> E    G_5 D_5   

 **************************************************************************

 **************************************************************************

                    xk=(   0.00000,   0.65000,   0.00000  )

     Band symmetry, C_4v (4mm)  point group:

     e(  1 -  1) =     -3.93948  eV     1   --> A_1  G_1 D_1   
     e(  2 -  2) =      1.43298  eV     1   --> B_2  G_4 D_2'  
     e(  3 -  4) =      3.85070  eV     2   --> E    G_5 D_5   
     e(  5 -  5) =      6.96400  eV     1   --> A_1  G_1 D_1   
     e(  6 -  6) =      8.29963  eV     1   --> B_2  G_4 D_2'  
     e(  7 -  8) =     13.44675  eV     2   --> E    G_5 D_5   

 **************************************************************************

 **************************************************************************

                    xk=(   0.00000,   0.70000,   0.00000  )

     Band symmetry, C_4v (4mm)  point group:

     e(  1 -  1) =     -3.65065  eV     1   --> A_1  G_1 D_1   
     e(  2 -  2) =      0.98504  eV     1   --> B_2  G_4 D_2'  
     e(  3 -  4) =      3.72223  eV     2   --> E    G_5 D_5   
     e(  5 -  5) =      6.87991  eV     1   --> A_1  G_1 D_1   
     e(  6 -  6) =      8.00376  eV     1   --> B_2  G_4 D_2'  
     e(  7 -  8) =     13.91518  eV     2   --> E    G_5 D_5   

 **************************************************************************

 **************************************************************************

                    xk=(   0.00000,   0.75000,   0.00000  )

     Band symmetry, C_4v (4mm)  point group:

     e(  1 -  1) =     -3.34528  eV     1   --> A_1  G_1 D_1   
     e(  2 -  2) =      0.54118  eV     1   --> B_2  G_4 D_2'  
     e(  3 -  4) =      3.61328  eV     2   --> E    G_5 D_5   
     e(  5 -  5) =      6.81970  eV     1   --> A_1  G_1 D_1   
     e(  6 -  6) =      7.73860  eV     1   --> B_2  G_4 D_2'  
     e(  7 -  8) =     14.38738  eV     2   --> E    G_5 D_5   

 **************************************************************************

 **************************************************************************

                    xk=(   0.00000,   0.80000,   0.00000  )

     Band symmetry, C_4v (4mm)  point group:

     e(  1 -  1) =     -3.02280  eV     1   --> A_1  G_1 D_1   
     e(  2 -  2) =      0.10219  eV     1   --> B_2  G_4 D_2'  
     e(  3 -  4) =      3.52309  eV     2   --> E    G_5 D_5   
     e(  5 -  5) =      6.77940  eV     1   --> A_1  G_1 D_1   
     e(  6 -  6) =      7.50570  eV     1   --> B_2  G_4 D_2'  
     e(  7 -  8) =     14.85872  eV     2   --> E    G_5 D_5   

 **************************************************************************

 **************************************************************************

                    xk=(   0.00000,   0.85000,   0.00000  )

     Band symmetry, C_4v (4mm)  point group:

     e(  1 -  1) =     -2.68218  eV     1   --> A_1  G_1 D_1   
     e(  2 -  2) =     -0.32923  eV     1   --> B_2  G_4 D_2'  
     e(  3 -  4) =      3.45270  eV     2   --> E    G_5 D_5   
     e(  5 -  5) =      6.76896  eV     1   --> A_1  G_1 D_1   
     e(  6 -  6) =      7.30640  eV     1   --> B_2  G_4 D_2'  
     e(  7 -  8) =     15.33166  eV     2   --> E    G_5 D_5   

 **************************************************************************

 **************************************************************************

                    xk=(   0.00000,   0.90000,   0.00000  )

     Band symmetry, C_4v (4mm)  point group:

     e(  1 -  1) =     -2.32533  eV     1   --> A_1  G_1 D_1   
     e(  2 -  2) =     -0.75381  eV     1   --> B_2  G_4 D_2'  
     e(  3 -  4) =      3.40192  eV     2   --> E    G_5 D_5   
     e(  5 -  5) =      6.78216  eV     1   --> A_1  G_1 D_1   
     e(  6 -  6) =      7.14036  eV     1   --> B_2  G_4 D_2'  
     e(  7 -  8) =     15.79272  eV     2   --> E    G_5 D_5   

 **************************************************************************

 **************************************************************************

                    xk=(   0.00000,   0.95000,   0.00000  )

     Band symmetry, C_4v (4mm)  point group:

     e(  1 -  1) =     -1.95283  eV     1   --> A_1  G_1 D_1   
     e(  2 -  2) =     -1.16584  eV     1   --> B_2  G_4 D_2'  
     e(  3 -  4) =      3.37158  eV     2   --> E    G_5 D_5   
     e(  5 -  5) =      6.82696  eV     1   --> A_1  G_1 D_1   
     e(  6 -  6) =      7.00515  eV     1   --> B_2  G_4 D_2'  
     e(  7 -  8) =     16.21494  eV     2   --> E    G_5 D_5   

 **************************************************************************

 **************************************************************************

                    xk=(   0.00000,   1.00000,   0.00000  )

     zone border point and non-symmorphic group 
     symmetry decomposition not available

 **************************************************************************

 **************************************************************************

                    xk=(  -0.01250,   1.00000,   0.01250  )

     zone border point and non-symmorphic group 
     symmetry decomposition not available

 **************************************************************************

 **************************************************************************

                    xk=(  -0.02500,   1.00000,   0.02500  )

     zone border point and non-symmorphic group 
     symmetry decomposition not available

 **************************************************************************

 **************************************************************************

                    xk=(  -0.03750,   1.00000,   0.03750  )

     zone border point and non-symmorphic group 
     symmetry decomposition not available

 **************************************************************************

 **************************************************************************

                    xk=(  -0.05000,   1.00000,   0.05000  )

     zone border point and non-symmorphic group 
     symmetry decomposition not available

 **************************************************************************

 **************************************************************************

                    xk=(  -0.06250,   1.00000,   0.06250  )

     zone border point and non-symmorphic group 
     symmetry decomposition not available

 **************************************************************************

 **************************************************************************

                    xk=(  -0.07500,   1.00000,   0.07500  )

     zone border point and non-symmorphic group 
     symmetry decomposition not available

 **************************************************************************

 **************************************************************************

                    xk=(  -0.08750,   1.00000,   0.08750  )

     zone border point and non-symmorphic group 
     symmetry decomposition not available

 **************************************************************************

 **************************************************************************

                    xk=(  -0.10000,   1.00000,   0.10000  )

     zone border point and non-symmorphic group 
     symmetry decomposition not available

 **************************************************************************

 **************************************************************************

                    xk=(  -0.11250,   1.00000,   0.11250  )

     zone border point and non-symmorphic group 
     symmetry decomposition not available

 **************************************************************************

 **************************************************************************

                    xk=(  -0.12500,   1.00000,   0.12500  )

     zone border point and non-symmorphic group 
     symmetry decomposition not available

 **************************************************************************

 **************************************************************************

                    xk=(  -0.13750,   1.00000,   0.13750  )

     zone border point and non-symmorphic group 
     symmetry decomposition not available

 **************************************************************************

 **************************************************************************

                    xk=(  -0.15000,   1.00000,   0.15000  )

     zone border point and non-symmorphic group 
     symmetry decomposition not available

 **************************************************************************

 **************************************************************************

                    xk=(  -0.16250,   1.00000,   0.16250  )

     zone border point and non-symmorphic group 
     symmetry decomposition not available

 **************************************************************************

 **************************************************************************

                    xk=(  -0.17500,   1.00000,   0.17500  )

     zone border point and non-symmorphic group 
     symmetry decomposition not available

 **************************************************************************

 **************************************************************************

                    xk=(  -0.18750,   1.00000,   0.18750  )

     zone border point and non-symmorphic group 
     symmetry decomposition not available

 **************************************************************************

 **************************************************************************

                    xk=(  -0.20000,   1.00000,   0.20000  )

     zone border point and non-symmorphic group 
     symmetry decomposition not available

 **************************************************************************

 **************************************************************************

                    xk=(  -0.21250,   1.00000,   0.21250  )

     zone border point and non-symmorphic group 
     symmetry decomposition not available

 **************************************************************************

 **************************************************************************

                    xk=(  -0.22500,   1.00000,   0.22500  )

     zone border point and non-symmorphic group 
     symmetry decomposition not available

 **************************************************************************

 **************************************************************************

                    xk=(  -0.23750,   1.00000,   0.23750  )

     zone border point and non-symmorphic group 
     symmetry decomposition not available

 **************************************************************************

 **************************************************************************

                    xk=(  -0.25000,   1.00000,   0.25000  )

     zone border point and non-symmorphic group 
     symmetry decomposition not available

 **************************************************************************

 **************************************************************************

                    xk=(  -0.23750,   0.98750,   0.27500  )

     point group C_1 (1)    
     there are  1 classes
     the character table:

       E    
A      1.00

     the symmetry operations in each class and the name of the first element:

     E        1
                                                                 

     Band symmetry, C_1 (1)     point group:

     e(  1 -  1) =     -1.99718  eV     1   --> A              
     e(  2 -  2) =     -0.94009  eV     1   --> A              
     e(  3 -  3) =      1.82763  eV     1   --> A              
     e(  4 -  4) =      3.80021  eV     1   --> A              
     e(  5 -  5) =      7.46747  eV     1   --> A              
     e(  6 -  6) =     10.51989  eV     1   --> A              
     e(  7 -  7) =     13.61776  eV     1   --> A              
     e(  8 -  8) =     14.24722  eV     1   --> A              

 **************************************************************************

 **************************************************************************

                    xk=(  -0.22500,   0.97500,   0.30000  )

     Band symmetry, C_1 (1)     point group:

     e(  1 -  1) =     -2.02917  eV     1   --> A              
     e(  2 -  2) =     -0.90280  eV     1   --> A              
     e(  3 -  3) =      1.82340  eV     1   --> A              
     e(  4 -  4) =      3.76141  eV     1   --> A              
     e(  5 -  5) =      7.58785  eV     1   --> A              
     e(  6 -  6) =     10.65586  eV     1   --> A              
     e(  7 -  7) =     13.29561  eV     1   --> A              
     e(  8 -  8) =     14.00045  eV     1   --> A              

 **************************************************************************

 **************************************************************************

                    xk=(  -0.21250,   0.96250,   0.32500  )

     Band symmetry, C_1 (1)     point group:

     e(  1 -  1) =     -2.06207  eV     1   --> A              
     e(  2 -  2) =     -0.86424  eV     1   --> A              
     e(  3 -  3) =      1.83147  eV     1   --> A              
     e(  4 -  4) =      3.69054  eV     1   --> A              
     e(  5 -  5) =      7.76429  eV     1   --> A              
     e(  6 -  6) =     10.79542  eV     1   --> A              
     e(  7 -  7) =     12.91751  eV     1   --> A              
     e(  8 -  8) =     13.74282  eV     1   --> A              

 **************************************************************************

 **************************************************************************

                    xk=(  -0.20000,   0.95000,   0.35000  )

     Band symmetry, C_1 (1)     point group:

     e(  1 -  1) =     -2.09333  eV     1   --> A              
     e(  2 -  2) =     -0.82732  eV     1   --> A              
     e(  3 -  3) =      1.85102  eV     1   --> A              
     e(  4 -  4) =      3.59708  eV     1   --> A              
     e(  5 -  5) =      7.98812  eV     1   --> A              
     e(  6 -  6) =     10.93382  eV     1   --> A              
     e(  7 -  7) =     12.52272  eV     1   --> A              
     e(  8 -  8) =     13.49893  eV     1   --> A              

 **************************************************************************

 **************************************************************************

                    xk=(  -0.18750,   0.93750,   0.37500  )

     Band symmetry, C_1 (1)     point group:

     e(  1 -  1) =     -2.12231  eV     1   --> A              
     e(  2 -  2) =     -0.79318  eV     1   --> A              
     e(  3 -  3) =      1.88091  eV     1   --> A              
     e(  4 -  4) =      3.49129  eV     1   --> A              
     e(  5 -  5) =      8.25062  eV     1   --> A              
     e(  6 -  6) =     11.05910  eV     1   --> A              
     e(  7 -  7) =     12.13742  eV     1   --> A              
     e(  8 -  8) =     13.26556  eV     1   --> A              

 **************************************************************************

 **************************************************************************

                    xk=(  -0.17500,   0.92500,   0.40000  )

     Band symmetry, C_1 (1)     point group:

     e(  1 -  1) =     -2.14639  eV     1   --> A              
     e(  2 -  2) =     -0.76358  eV     1   --> A              
     e(  3 -  3) =      1.91854  eV     1   --> A              
     e(  4 -  4) =      3.38302  eV     1   --> A              
     e(  5 -  5) =      8.54449  eV     1   --> A              
     e(  6 -  6) =     11.12966  eV     1   --> A              
     e(  7 -  7) =     11.81419  eV     1   --> A              
     e(  8 -  8) =     13.04314  eV     1   --> A              

 **************************************************************************

 **************************************************************************

                    xk=(  -0.16250,   0.91250,   0.42500  )

     Band symmetry, C_1 (1)     point group:

     e(  1 -  1) =     -2.16553  eV     1   --> A              
     e(  2 -  2) =     -0.73986  eV     1   --> A              
     e(  3 -  3) =      1.95959  eV     1   --> A              
     e(  4 -  4) =      3.28203  eV     1   --> A              
     e(  5 -  5) =      8.86228  eV     1   --> A              
     e(  6 -  6) =     11.01001  eV     1   --> A              
     e(  7 -  7) =     11.68882  eV     1   --> A              
     e(  8 -  8) =     12.83223  eV     1   --> A              

 **************************************************************************

 **************************************************************************

                    xk=(  -0.15000,   0.90000,   0.45000  )

     Band symmetry, C_1 (1)     point group:

     e(  1 -  1) =     -2.18050  eV     1   --> A              
     e(  2 -  2) =     -0.72271  eV     1   --> A              
     e(  3 -  3) =      1.99772  eV     1   --> A              
     e(  4 -  4) =      3.19824  eV     1   --> A              
     e(  5 -  5) =      9.19607  eV     1   --> A              
     e(  6 -  6) =     10.70248  eV     1   --> A              
     e(  7 -  7) =     11.75623  eV     1   --> A              
     e(  8 -  8) =     12.63704  eV     1   --> A              

 **************************************************************************

 **************************************************************************

                    xk=(  -0.13750,   0.88750,   0.47500  )

     Band symmetry, C_1 (1)     point group:

     e(  1 -  1) =     -2.18910  eV     1   --> A              
     e(  2 -  2) =     -0.71100  eV     1   --> A              
     e(  3 -  3) =      2.02629  eV     1   --> A              
     e(  4 -  4) =      3.14205  eV     1   --> A              
     e(  5 -  5) =      9.53808  eV     1   --> A              
     e(  6 -  6) =     10.35341  eV     1   --> A              
     e(  7 -  7) =     11.87062  eV     1   --> A              
     e(  8 -  8) =     12.47710  eV     1   --> A              

 **************************************************************************

 **************************************************************************

                    xk=(  -0.12500,   0.87500,   0.50000  )

     zone border point and non-symmorphic group 
     symmetry decomposition not available

 **************************************************************************

 **************************************************************************

                    xk=(  -0.11250,   0.86250,   0.52500  )

     point group C_1 (1)    
     there are  1 classes
     the character table:

       E    
A      1.00

     the symmetry operations in each class and the name of the first element:

     E        1
                                                                 

     Band symmetry, C_1 (1)     point group:

     e(  1 -  1) =     -2.18910  eV     1   --> A              
     e(  2 -  2) =     -0.71100  eV     1   --> A              
     e(  3 -  3) =      2.02629  eV     1   --> A              
     e(  4 -  4) =      3.14205  eV     1   --> A              
     e(  5 -  5) =      9.53808  eV     1   --> A              
     e(  6 -  6) =     10.35341  eV     1   --> A              
     e(  7 -  7) =     11.87062  eV     1   --> A              
     e(  8 -  8) =     12.47710  eV     1   --> A              

 **************************************************************************

 **************************************************************************

                    xk=(  -0.10000,   0.85000,   0.55000  )

     Band symmetry, C_1 (1)     point group:

     e(  1 -  1) =     -2.18050  eV     1   --> A              
     e(  2 -  2) =     -0.72271  eV     1   --> A              
     e(  3 -  3) =      1.99772  eV     1   --> A              
     e(  4 -  4) =      3.19824  eV     1   --> A              
     e(  5 -  5) =      9.19607  eV     1   --> A              
     e(  6 -  6) =     10.70248  eV     1   --> A              
     e(  7 -  7) =     11.75623  eV     1   --> A              
     e(  8 -  8) =     12.63704  eV     1   --> A              

 **************************************************************************

 **************************************************************************

                    xk=(  -0.08750,   0.83750,   0.57500  )

     Band symmetry, C_1 (1)     point group:

     e(  1 -  1) =     -2.16553  eV     1   --> A              
     e(  2 -  2) =     -0.73986  eV     1   --> A              
     e(  3 -  3) =      1.95959  eV     1   --> A              
     e(  4 -  4) =      3.28203  eV     1   --> A              
     e(  5 -  5) =      8.86228  eV     1   --> A              
     e(  6 -  6) =     11.01001  eV     1   --> A              
     e(  7 -  7) =     11.68882  eV     1   --> A              
     e(  8 -  8) =     12.83223  eV     1   --> A              

 **************************************************************************

 **************************************************************************

                    xk=(  -0.07500,   0.82500,   0.60000  )

     Band symmetry, C_1 (1)     point group:

     e(  1 -  1) =     -2.14639  eV     1   --> A              
     e(  2 -  2) =     -0.76358  eV     1   --> A              
     e(  3 -  3) =      1.91854  eV     1   --> A              
     e(  4 -  4) =      3.38302  eV     1   --> A              
     e(  5 -  5) =      8.54449  eV     1   --> A              
     e(  6 -  6) =     11.12966  eV     1   --> A              
     e(  7 -  7) =     11.81419  eV     1   --> A              
     e(  8 -  8) =     13.04314  eV     1   --> A              

 **************************************************************************

 **************************************************************************

                    xk=(  -0.06250,   0.81250,   0.62500  )

     Band symmetry, C_1 (1)     point group:

     e(  1 -  1) =     -2.12231  eV     1   --> A              
     e(  2 -  2) =     -0.79318  eV     1   --> A              
     e(  3 -  3) =      1.88091  eV     1   --> A              
     e(  4 -  4) =      3.49129  eV     1   --> A              
     e(  5 -  5) =      8.25062  eV     1   --> A              
     e(  6 -  6) =     11.05910  eV     1   --> A              
     e(  7 -  7) =     12.13742  eV     1   --> A              
     e(  8 -  8) =     13.26556  eV     1   --> A              

 **************************************************************************

 **************************************************************************

                    xk=(  -0.05000,   0.80000,   0.65000  )

     Band symmetry, C_1 (1)     point group:

     e(  1 -  1) =     -2.09333  eV     1   --> A              
     e(  2 -  2) =     -0.82732  eV     1   --> A              
     e(  3 -  3) =      1.85102  eV     1   --> A              
     e(  4 -  4) =      3.59708  eV     1   --> A              
     e(  5 -  5) =      7.98812  eV     1   --> A              
     e(  6 -  6) =     10.93382  eV     1   --> A              
     e(  7 -  7) =     12.52272  eV     1   --> A              
     e(  8 -  8) =     13.49893  eV     1   --> A              

 **************************************************************************

 **************************************************************************

                    xk=(  -0.03750,   0.78750,   0.67500  )

     Band symmetry, C_1 (1)     point group:

     e(  1 -  1) =     -2.06207  eV     1   --> A              
     e(  2 -  2) =     -0.86424  eV     1   --> A              
     e(  3 -  3) =      1.83147  eV     1   --> A              
     e(  4 -  4) =      3.69054  eV     1   --> A              
     e(  5 -  5) =      7.76429  eV     1   --> A              
     e(  6 -  6) =     10.79542  eV     1   --> A              
     e(  7 -  7) =     12.91751  eV     1   --> A              
     e(  8 -  8) =     13.74282  eV     1   --> A              

 **************************************************************************

 **************************************************************************

                    xk=(  -0.02500,   0.77500,   0.70000  )

     Band symmetry, C_1 (1)     point group:

     e(  1 -  1) =     -2.02917  eV     1   --> A              
     e(  2 -  2) =     -0.90280  eV     1   --> A              
     e(  3 -  3) =      1.82340  eV     1   --> A              
     e(  4 -  4) =      3.76141  eV     1   --> A              
     e(  5 -  5) =      7.58785  eV     1   --> A              
     e(  6 -  6) =     10.65586  eV     1   --> A              
     e(  7 -  7) =     13.29561  eV     1   --> A              
     e(  8 -  8) =     14.00045  eV     1   --> A              

 **************************************************************************

 **************************************************************************

                    xk=(  -0.01250,   0.76250,   0.72500  )

     Band symmetry, C_1 (1)     point group:

     e(  1 -  1) =     -1.99718  eV     1   --> A              
     e(  2 -  2) =     -0.94009  eV     1   --> A              
     e(  3 -  3) =      1.82763  eV     1   --> A              
     e(  4 -  4) =      3.80021  eV     1   --> A              
     e(  5 -  5) =      7.46747  eV     1   --> A              
     e(  6 -  6) =     10.51989  eV     1   --> A              
     e(  7 -  7) =     13.61776  eV     1   --> A              
     e(  8 -  8) =     14.24722  eV     1   --> A              

 **************************************************************************

 **************************************************************************

                    xk=(   0.00000,   0.75000,   0.75000  )

     point group C_2v (mm2) 
     there are  4 classes
     the character table:

       E     C2    s_v   s_v' 
A_1    1.00  1.00  1.00  1.00
A_2    1.00  1.00 -1.00 -1.00
B_1    1.00 -1.00  1.00 -1.00
B_2    1.00 -1.00 -1.00  1.00

     the symmetry operations in each class and the name of the first element:

     E        1
                                                                 
     C2       2
                                                                 
     s_v      4
                                                                 
     s_v'     3
                                                                 

     Band symmetry, C_2v (mm2)  point group:

     e(  1 -  1) =     -1.96703  eV     1   --> A_1  D_1  S_1  
     e(  2 -  2) =     -0.97325  eV     1   --> B_1  D_3  S_3  
     e(  3 -  3) =      1.84409  eV     1   --> A_1  D_1  S_1  
     e(  4 -  4) =      3.79976  eV     1   --> A_2  D_2  S_2  
     e(  5 -  5) =      7.40932  eV     1   --> B_1  D_3  S_3  
     e(  6 -  6) =     10.38948  eV     1   --> A_1  D_1  S_1  
     e(  7 -  7) =     13.80195  eV     1   --> B_2  D_4  S_4  
     e(  8 -  8) =     14.33274  eV     1   --> A_1  D_1  S_1  

 **************************************************************************

 **************************************************************************

                    xk=(   0.00000,   0.71250,   0.71250  )

     Band symmetry, C_2v (mm2)  point group:

     e(  1 -  1) =     -2.15809  eV     1   --> A_1  D_1  S_1  
     e(  2 -  2) =     -0.78310  eV     1   --> B_1  D_3  S_3  
     e(  3 -  3) =      1.74691  eV     1   --> A_1  D_1  S_1  
     e(  4 -  4) =      3.93540  eV     1   --> A_2  D_2  S_2  
     e(  5 -  5) =      7.56688  eV     1   --> B_1  D_3  S_3  
     e(  6 -  6) =     11.15592  eV     1   --> A_1  D_1  S_1  
     e(  7 -  7) =     13.34083  eV     1   --> B_2  D_4  S_4  
     e(  8 -  8) =     13.86969  eV     1   --> A_1  D_1  S_1  

 **************************************************************************

 **************************************************************************

                    xk=(   0.00000,   0.67500,   0.67500  )

     Band symmetry, C_2v (mm2)  point group:

     e(  1 -  1) =     -2.38787  eV     1   --> A_1  D_1  S_1  
     e(  2 -  2) =     -0.56532  eV     1   --> B_1  D_3  S_3  
     e(  3 -  3) =      1.72701  eV     1   --> A_1  D_1  S_1  
     e(  4 -  4) =      4.08669  eV     1   --> A_2  D_2  S_2  
     e(  5 -  5) =      7.74517  eV     1   --> B_1  D_3  S_3  
     e(  6 -  6) =     11.91240  eV     1   --> A_1  D_1  S_1  
     e(  7 -  7) =     12.89816  eV     1   --> B_2  D_4  S_4  
     e(  8 -  8) =     13.47314  eV     1   --> A_1  D_1  S_1  

 **************************************************************************

 **************************************************************************

                    xk=(   0.00000,   0.63750,   0.63750  )

     Band symmetry, C_2v (mm2)  point group:

     e(  1 -  1) =     -2.64783  eV     1   --> A_1  D_1  S_1  
     e(  2 -  2) =     -0.32315  eV     1   --> B_1  D_3  S_3  
     e(  3 -  3) =      1.77705  eV     1   --> A_1  D_1  S_1  
     e(  4 -  4) =      4.25103  eV     1   --> A_2  D_2  S_2  
     e(  5 -  5) =      7.93614  eV     1   --> B_1  D_3  S_3  
     e(  6 -  6) =     12.44521  eV     1   --> A_1  D_1  S_1  
     e(  7 -  7) =     12.47260  eV     1   --> B_2  D_4  S_4  
     e(  8 -  8) =     13.33551  eV     1   --> A_1  D_1  S_1  

 **************************************************************************

 **************************************************************************

                    xk=(   0.00000,   0.60000,   0.60000  )

     Band symmetry, C_2v (mm2)  point group:

     e(  1 -  1) =     -2.92701  eV     1   --> A_1  D_1  S_1  
     e(  2 -  2) =     -0.05215  eV     1   --> B_1  D_3  S_3  
     e(  3 -  3) =      1.88931  eV     1   --> A_1  D_1  S_1  
     e(  4 -  4) =      4.42669  eV     1   --> A_2  D_2  S_2  
     e(  5 -  5) =      8.14142  eV     1   --> B_1  D_3  S_3  
     e(  6 -  6) =     12.06903  eV     1   --> B_2  D_4  S_4  
     e(  7 -  7) =     12.33218  eV     1   --> A_1  D_1  S_1  
     e(  8 -  8) =     13.14544  eV     1   --> B_1  D_3  S_3  

 **************************************************************************

 **************************************************************************

                    xk=(   0.00000,   0.56250,   0.56250  )

     Band symmetry, C_2v (mm2)  point group:

     e(  1 -  1) =     -3.21751  eV     1   --> A_1  D_1  S_1  
     e(  2 -  2) =      0.24120  eV     1   --> B_1  D_3  S_3  
     e(  3 -  3) =      2.05347  eV     1   --> A_1  D_1  S_1  
     e(  4 -  4) =      4.61109  eV     1   --> A_2  D_2  S_2  
     e(  5 -  5) =      8.35400  eV     1   --> B_1  D_3  S_3  
     e(  6 -  6) =     11.68622  eV     1   --> B_2  D_4  S_4  
     e(  7 -  7) =     11.99757  eV     1   --> A_1  D_1  S_1  
     e(  8 -  8) =     12.85135  eV     1   --> B_1  D_3  S_3  

 **************************************************************************

 **************************************************************************

                    xk=(   0.00000,   0.52500,   0.52500  )

     Band symmetry, C_2v (mm2)  point group:

     e(  1 -  1) =     -3.50761  eV     1   --> A_1  D_1  S_1  
     e(  2 -  2) =      0.55984  eV     1   --> B_1  D_3  S_3  
     e(  3 -  3) =      2.26145  eV     1   --> A_1  D_1  S_1  
     e(  4 -  4) =      4.80108  eV     1   --> A_2  D_2  S_2  
     e(  5 -  5) =      8.56922  eV     1   --> B_1  D_3  S_3  
     e(  6 -  6) =     11.32491  eV     1   --> B_2  D_4  S_4  
     e(  7 -  7) =     11.64677  eV     1   --> A_1  D_1  S_1  
     e(  8 -  8) =     12.58706  eV     1   --> B_1  D_3  S_3  

 **************************************************************************

 **************************************************************************

                    xk=(   0.00000,   0.48750,   0.48750  )

     Band symmetry, C_2v (mm2)  point group:

     e(  1 -  1) =     -3.79162  eV     1   --> A_1  D_1  S_1  
     e(  2 -  2) =      0.90366  eV     1   --> B_1  D_3  S_3  
     e(  3 -  3) =      2.50698  eV     1   --> A_1  D_1  S_1  
     e(  4 -  4) =      4.99315  eV     1   --> A_2  D_2  S_2  
     e(  5 -  5) =      8.77969  eV     1   --> B_1  D_3  S_3  
     e(  6 -  6) =     10.98698  eV     1   --> B_2  D_4  S_4  
     e(  7 -  7) =     11.30889  eV     1   --> A_1  D_1  S_1  
     e(  8 -  8) =     12.36055  eV     1   --> B_1  D_3  S_3  

 **************************************************************************

 **************************************************************************

                    xk=(   0.00000,   0.45000,   0.45000  )

     Band symmetry, C_2v (mm2)  point group:

     e(  1 -  1) =     -4.06568  eV     1   --> A_1  D_1  S_1  
     e(  2 -  2) =      1.27109  eV     1   --> B_1  D_3  S_3  
     e(  3 -  3) =      2.78446  eV     1   --> A_1  D_1  S_1  
     e(  4 -  4) =      5.18326  eV     1   --> A_2  D_2  S_2  
     e(  5 -  5) =      8.97443  eV     1   --> B_1  D_3  S_3  
     e(  6 -  6) =     10.67249  eV     1   --> B_2  D_4  S_4  
     e(  7 -  7) =     10.98849  eV     1   --> A_1  D_1  S_1  
     e(  8 -  8) =     12.17891  eV     1   --> B_1  D_3  S_3  

 **************************************************************************

 **************************************************************************

                    xk=(   0.00000,   0.41250,   0.41250  )

     Band symmetry, C_2v (mm2)  point group:

     e(  1 -  1) =     -4.32630  eV     1   --> A_1  D_1  S_1  
     e(  2 -  2) =      1.66203  eV     1   --> B_1  D_3  S_3  
     e(  3 -  3) =      3.08894  eV     1   --> A_1  D_1  S_1  
     e(  4 -  4) =      5.36712  eV     1   --> A_2  D_2  S_2  
     e(  5 -  5) =      9.14167  eV     1   --> B_1  D_3  S_3  
     e(  6 -  6) =     10.38250  eV     1   --> B_2  D_4  S_4  
     e(  7 -  7) =     10.69039  eV     1   --> A_1  D_1  S_1  
     e(  8 -  8) =     12.04966  eV     1   --> B_1  D_3  S_3  

 **************************************************************************

 **************************************************************************

                    xk=(   0.00000,   0.37500,   0.37500  )

     Band symmetry, C_2v (mm2)  point group:

     e(  1 -  1) =     -4.56935  eV     1   --> A_1  D_1  S_1  
     e(  2 -  2) =      2.07658  eV     1   --> B_1  D_3  S_3  
     e(  3 -  3) =      3.41527  eV     1   --> A_1  D_1  S_1  
     e(  4 -  4) =      5.53803  eV     1   --> A_2  D_2  S_2  
     e(  5 -  5) =      9.26757  eV     1   --> B_1  D_3  S_3  
     e(  6 -  6) =     10.11659  eV     1   --> B_2  D_4  S_4  
     e(  7 -  7) =     10.41501  eV     1   --> A_1  D_1  S_1  
     e(  8 -  8) =     11.97267  eV     1   --> B_1  D_3  S_3  

 **************************************************************************

 **************************************************************************

                    xk=(   0.00000,   0.33750,   0.33750  )

     Band symmetry, C_2v (mm2)  point group:

     e(  1 -  1) =     -4.79385  eV     1   --> A_1  D_1  S_1  
     e(  2 -  2) =      2.51082  eV     1   --> B_1  D_3  S_3  
     e(  3 -  3) =      3.76016  eV     1   --> A_1  D_1  S_1  
     e(  4 -  4) =      5.69654  eV     1   --> A_2  D_2  S_2  
     e(  5 -  5) =      9.34759  eV     1   --> B_1  D_3  S_3  
     e(  6 -  6) =      9.87524  eV     1   --> B_2  D_4  S_4  
     e(  7 -  7) =     10.15710  eV     1   --> A_1  D_1  S_1  
     e(  8 -  8) =     11.94519  eV     1   --> B_1  D_3  S_3  

 **************************************************************************

 **************************************************************************

                    xk=(   0.00000,   0.30000,   0.30000  )

     Band symmetry, C_2v (mm2)  point group:

     e(  1 -  1) =     -4.99622  eV     1   --> A_1  D_1  S_1  
     e(  2 -  2) =      2.96644  eV     1   --> B_1  D_3  S_3  
     e(  3 -  3) =      4.11928  eV     1   --> A_1  D_1  S_1  
     e(  4 -  4) =      5.83812  eV     1   --> A_2  D_2  S_2  
     e(  5 -  5) =      9.38100  eV     1   --> B_1  D_3  S_3  
     e(  6 -  6) =      9.66256  eV     1   --> B_2  D_4  S_4  
     e(  7 -  7) =      9.92330  eV     1   --> A_1  D_1  S_1  
     e(  8 -  8) =     11.93955  eV     1   --> B_1  D_3  S_3  

 **************************************************************************

 **************************************************************************

                    xk=(   0.00000,   0.26250,   0.26250  )

     Band symmetry, C_2v (mm2)  point group:

     e(  1 -  1) =     -5.17873  eV     1   --> A_1  D_1  S_1  
     e(  2 -  2) =      3.43851  eV     1   --> B_1  D_3  S_3  
     e(  3 -  3) =      4.48448  eV     1   --> A_1  D_1  S_1  
     e(  4 -  4) =      5.95836  eV     1   --> A_2  D_2  S_2  
     e(  5 -  5) =      9.37307  eV     1   --> B_1  D_3  S_3  
     e(  6 -  6) =      9.47085  eV     1   --> B_2  D_4  S_4  
     e(  7 -  7) =      9.70621  eV     1   --> A_1  D_1  S_1  
     e(  8 -  8) =     11.89431  eV     1   --> B_1  D_3  S_3  

 **************************************************************************

 **************************************************************************

                    xk=(   0.00000,   0.22500,   0.22500  )

     Band symmetry, C_2v (mm2)  point group:

     e(  1 -  1) =     -5.33702  eV     1   --> A_1  D_1  S_1  
     e(  2 -  2) =      3.92802  eV     1   --> B_1  D_3  S_3  
     e(  3 -  3) =      4.84996  eV     1   --> A_1  D_1  S_1  
     e(  4 -  4) =      6.05795  eV     1   --> A_2  D_2  S_2  
     e(  5 -  5) =      9.30513  eV     1   --> B_2  D_4  S_4  
     e(  6 -  6) =      9.34026  eV     1   --> B_1  D_3  S_3  
     e(  7 -  7) =      9.51332  eV     1   --> A_1  D_1  S_1  
     e(  8 -  8) =     11.73258  eV     1   --> B_1  D_3  S_3  

 **************************************************************************

 **************************************************************************

                    xk=(   0.00000,   0.18750,   0.18750  )

     Band symmetry, C_2v (mm2)  point group:

     e(  1 -  1) =     -5.47248  eV     1   --> A_1  D_1  S_1  
     e(  2 -  2) =      4.42389  eV     1   --> B_1  D_3  S_3  
     e(  3 -  3) =      5.20567  eV     1   --> A_1  D_1  S_1  
     e(  4 -  4) =      6.13674  eV     1   --> A_2  D_2  S_2  
     e(  5 -  5) =      9.16382  eV     1   --> B_2  D_4  S_4  
     e(  6 -  6) =      9.28479  eV     1   --> B_1  D_3  S_3  
     e(  7 -  7) =      9.33751  eV     1   --> A_1  D_1  S_1  
     e(  8 -  8) =     11.40614  eV     1   --> B_1  D_3  S_3  

 **************************************************************************

 **************************************************************************

                    xk=(   0.00000,   0.15000,   0.15000  )

     Band symmetry, C_2v (mm2)  point group:

     e(  1 -  1) =     -5.58375  eV     1   --> A_1  D_1  S_1  
     e(  2 -  2) =      4.92066  eV     1   --> B_1  D_3  S_3  
     e(  3 -  3) =      5.54064  eV     1   --> A_1  D_1  S_1  
     e(  4 -  4) =      6.19723  eV     1   --> A_2  D_2  S_2  
     e(  5 -  5) =      9.04828  eV     1   --> B_2  D_4  S_4  
     e(  6 -  6) =      9.18201  eV     1   --> A_1  D_1  S_1  
     e(  7 -  7) =      9.21894  eV     1   --> B_1  D_3  S_3  
     e(  8 -  8) =     10.96458  eV     1   --> B_1  D_3  S_3  

 **************************************************************************

 **************************************************************************

                    xk=(   0.00000,   0.11250,   0.11250  )

     Band symmetry, C_2v (mm2)  point group:

     e(  1 -  1) =     -5.67083  eV     1   --> A_1  D_1  S_1  
     e(  2 -  2) =      5.40163  eV     1   --> B_1  D_3  S_3  
     e(  3 -  3) =      5.83826  eV     1   --> A_1  D_1  S_1  
     e(  4 -  4) =      6.24107  eV     1   --> A_2  D_2  S_2  
     e(  5 -  5) =      8.95834  eV     1   --> B_2  D_4  S_4  
     e(  6 -  6) =      9.04757  eV     1   --> A_1  D_1  S_1  
     e(  7 -  7) =      9.13685  eV     1   --> B_1  D_3  S_3  
     e(  8 -  8) =     10.49800  eV     1   --> B_1  D_3  S_3  

 **************************************************************************

 **************************************************************************

                    xk=(   0.00000,   0.07500,   0.07500  )

     Band symmetry, C_2v (mm2)  point group:

     e(  1 -  1) =     -5.73322  eV     1   --> A_1  D_1  S_1  
     e(  2 -  2) =      5.83605  eV     1   --> B_1  D_3  S_3  
     e(  3 -  3) =      6.07808  eV     1   --> A_1  D_1  S_1  
     e(  4 -  4) =      6.27046  eV     1   --> A_2  D_2  S_2  
     e(  5 -  5) =      8.89406  eV     1   --> B_2  D_4  S_4  
     e(  6 -  6) =      8.93979  eV     1   --> A_1  D_1  S_1  
     e(  7 -  7) =      9.02991  eV     1   --> B_1  D_3  S_3  
     e(  8 -  8) =     10.09779  eV     1   --> B_1  D_3  S_3  

 **************************************************************************

 **************************************************************************

                    xk=(   0.00000,   0.03750,   0.03750  )

     Band symmetry, C_2v (mm2)  point group:

     e(  1 -  1) =     -5.77071  eV     1   --> A_1  D_1  S_1  
     e(  2 -  2) =      6.16354  eV     1   --> B_1  D_3  S_3  
     e(  3 -  3) =      6.23639  eV     1   --> A_1  D_1  S_1  
     e(  4 -  4) =      6.28726  eV     1   --> A_2  D_2  S_2  
     e(  5 -  5) =      8.85548  eV     1   --> B_2  D_4  S_4  
     e(  6 -  6) =      8.86790  eV     1   --> A_1  D_1  S_1  
     e(  7 -  7) =      8.90597  eV     1   --> B_1  D_3  S_3  
     e(  8 -  8) =      9.84273  eV     1   --> B_1  D_3  S_3  

 **************************************************************************

 **************************************************************************

                    xk=(   0.00000,   0.00000,   0.00000  )

     point group O_h (m-3m) 
     there are 10 classes
     the character table:

       E     8C3   3C2   6C4   6C2'  i     8S6   3s_h  6S4   6s_d 
A_1g   1.00  1.00  1.00  1.00  1.00  1.00  1.00  1.00  1.00  1.00
A_2g   1.00  1.00  1.00 -1.00 -1.00  1.00  1.00  1.00 -1.00 -1.00
E_g    2.00 -1.00  2.00  0.00  0.00  2.00 -1.00  2.00  0.00  0.00
T_1g   3.00  0.00 -1.00  1.00 -1.00  3.00  0.00 -1.00  1.00 -1.00
T_2g   3.00  0.00 -1.00 -1.00  1.00  3.00  0.00 -1.00 -1.00  1.00
A_1u   1.00  1.00  1.00  1.00  1.00 -1.00 -1.00 -1.00 -1.00 -1.00
A_2u   1.00  1.00  1.00 -1.00 -1.00 -1.00 -1.00 -1.00  1.00  1.00
E_u    2.00 -1.00  2.00  0.00  0.00 -2.00  1.00 -2.00  0.00  0.00
T_1u   3.00  0.00 -1.00  1.00 -1.00 -3.00  0.00  1.00 -1.00  1.00
T_2u   3.00  0.00 -1.00 -1.00  1.00 -3.00  0.00  1.00  1.00 -1.00

     the symmetry operations in each class and the name of the first element:

     E        1
                                                                 
     8C3     17   19   20   18   24   21   22   23
                                                                 
     3C2      2    4    3
                                                                 
     6C4      7    8   15   16   12   11
                                                                 
     6C2'     5    6   14   13   10    9
                                                                 
     i       25
                                                                 
     8S6     41   43   44   42   48   45   46   47
                                                                 
     3s_h    26   28   27
                                                                 
     6S4     31   32   39   40   36   35
                                                                 
     6s_d    29   30   38   37   34   33
                                                                 

     Band symmetry, O_h (m-3m)  point group:

     e(  1 -  1) =     -5.78255  eV     1   --> A_1g G_1   G_1+
     e(  2 -  4) =      6.29272  eV     3   --> T_2g G_25' G_5+
     e(  5 -  7) =      8.84262  eV     3   --> T_1u G_15  G_4-
     e(  8 -  8) =      9.76015  eV     1   --> A_2u G_2'  G_2-

 **************************************************************************

     BANDS        :      0.56s CPU      0.66s WALL


   This run was terminated on:   9:33:30   7Jun2023            

=------------------------------------------------------------------------------=
   JOB DONE.
=------------------------------------------------------------------------------=
