
     Program PWSCF v.7.1 starts on  7Jun2023 at  9:31:18 

     This program is part of the open-source Quantum ESPRESSO suite
     for quantum simulation of materials; please cite
         "P. Giannozzi et al., J. Phys.:Condens. Matter 21 395502 (2009);
         "P. Giannozzi et al., J. Phys.:Condens. Matter 29 465901 (2017);
         "P. Giannozzi et al., J. Chem. Phys. 152 154105 (2020);
          URL http://www.quantum-espresso.org", 
     in publications or presentations arising from this work. More details at
     http://www.quantum-espresso.org/quote

     Parallel version (MPI), running on     1 processors

     MPI processes distributed on     1 nodes
     0 MiB available memory on the printing compute node when the environment starts

     Waiting for input...
     Reading input from standard input

     Current dimensions of program PWSCF are:
     Max number of different atomic species (ntypx) = 10
     Max number of k-points (npk) =  40000
     Max angular momentum in pseudopotentials (lmaxx) =  4

     Atomic positions and unit cell read from directory:
     tmp/Si.save/


     Subspace diagonalization in iterative solution of the eigenvalue problem:
     a serial algorithm will be used


     G-vector sticks info
     --------------------
     sticks:   dense  smooth     PW     G-vecs:    dense   smooth      PW
     Sum         253     253     85                 2733     2733     531

     Using Slab Decomposition



     bravais-lattice index     =            2
     lattice parameter (alat)  =      10.2000  a.u.
     unit-cell volume          =     265.3020 (a.u.)^3
     number of atoms/cell      =            2
     number of atomic types    =            1
     number of electrons       =         8.00
     number of Kohn-Sham states=            8
     kinetic-energy cutoff     =      18.0000  Ry
     charge density cutoff     =      72.0000  Ry
     Exchange-correlation= SLA  PZ   NOGX NOGC
                           (   1   1   0   0   0   0   0)

     celldm(1)=  10.200000  celldm(2)=   0.000000  celldm(3)=   0.000000
     celldm(4)=   0.000000  celldm(5)=   0.000000  celldm(6)=   0.000000

     crystal axes: (cart. coord. in units of alat)
               a(1) = (  -0.500000   0.000000   0.500000 )  
               a(2) = (   0.000000   0.500000   0.500000 )  
               a(3) = (  -0.500000   0.500000   0.000000 )  

     reciprocal axes: (cart. coord. in units 2 pi/alat)
               b(1) = ( -1.000000 -1.000000  1.000000 )  
               b(2) = (  1.000000  1.000000  1.000000 )  
               b(3) = ( -1.000000  1.000000 -1.000000 )  


     PseudoPot. # 1 for Si read from file:
     pseudopotentials/Si.pz-vbc.UPF
     MD5 check sum: 9f25e6ff280f3123e9b3a84715b2e9c9
     Pseudo is Norm-conserving, Zval =  4.0
     Generated by new atomic code, or converted to UPF format
     Using radial grid of  431 points,  2 beta functions with: 
                l(1) =   0
                l(2) =   1

     atomic species   valence    mass     pseudopotential
        Si             4.00    28.08600     Si( 1.00)

     48 Sym. Ops., with inversion, found (24 have fractional translation)



   Cartesian axes

     site n.     atom                  positions (alat units)
         1           Si  tau(   1) = (   0.0000000   0.0000000   0.0000000  )
         2           Si  tau(   2) = (   0.2500000   0.2500000   0.2500000  )

     number of k points=    81
                       cart. coord. in units 2pi/alat
        k(    1) = (   0.0000000   0.0000000   0.0000000), wk =   0.0246914
        k(    2) = (   0.0000000   0.0500000   0.0000000), wk =   0.0246914
        k(    3) = (   0.0000000   0.1000000   0.0000000), wk =   0.0246914
        k(    4) = (   0.0000000   0.1500000   0.0000000), wk =   0.0246914
        k(    5) = (   0.0000000   0.2000000   0.0000000), wk =   0.0246914
        k(    6) = (   0.0000000   0.2500000   0.0000000), wk =   0.0246914
        k(    7) = (   0.0000000   0.3000000   0.0000000), wk =   0.0246914
        k(    8) = (   0.0000000   0.3500000   0.0000000), wk =   0.0246914
        k(    9) = (   0.0000000   0.4000000   0.0000000), wk =   0.0246914
        k(   10) = (   0.0000000   0.4500000   0.0000000), wk =   0.0246914
        k(   11) = (   0.0000000   0.5000000   0.0000000), wk =   0.0246914
        k(   12) = (   0.0000000   0.5500000   0.0000000), wk =   0.0246914
        k(   13) = (   0.0000000   0.6000000   0.0000000), wk =   0.0246914
        k(   14) = (   0.0000000   0.6500000   0.0000000), wk =   0.0246914
        k(   15) = (   0.0000000   0.7000000   0.0000000), wk =   0.0246914
        k(   16) = (   0.0000000   0.7500000   0.0000000), wk =   0.0246914
        k(   17) = (   0.0000000   0.8000000   0.0000000), wk =   0.0246914
        k(   18) = (   0.0000000   0.8500000   0.0000000), wk =   0.0246914
        k(   19) = (   0.0000000   0.9000000   0.0000000), wk =   0.0246914
        k(   20) = (   0.0000000   0.9500000   0.0000000), wk =   0.0246914
        k(   21) = (   0.0000000   1.0000000   0.0000000), wk =   0.0246914
        k(   22) = (  -0.0125000   1.0000000   0.0125000), wk =   0.0246914
        k(   23) = (  -0.0250000   1.0000000   0.0250000), wk =   0.0246914
        k(   24) = (  -0.0375000   1.0000000   0.0375000), wk =   0.0246914
        k(   25) = (  -0.0500000   1.0000000   0.0500000), wk =   0.0246914
        k(   26) = (  -0.0625000   1.0000000   0.0625000), wk =   0.0246914
        k(   27) = (  -0.0750000   1.0000000   0.0750000), wk =   0.0246914
        k(   28) = (  -0.0875000   1.0000000   0.0875000), wk =   0.0246914
        k(   29) = (  -0.1000000   1.0000000   0.1000000), wk =   0.0246914
        k(   30) = (  -0.1125000   1.0000000   0.1125000), wk =   0.0246914
        k(   31) = (  -0.1250000   1.0000000   0.1250000), wk =   0.0246914
        k(   32) = (  -0.1375000   1.0000000   0.1375000), wk =   0.0246914
        k(   33) = (  -0.1500000   1.0000000   0.1500000), wk =   0.0246914
        k(   34) = (  -0.1625000   1.0000000   0.1625000), wk =   0.0246914
        k(   35) = (  -0.1750000   1.0000000   0.1750000), wk =   0.0246914
        k(   36) = (  -0.1875000   1.0000000   0.1875000), wk =   0.0246914
        k(   37) = (  -0.2000000   1.0000000   0.2000000), wk =   0.0246914
        k(   38) = (  -0.2125000   1.0000000   0.2125000), wk =   0.0246914
        k(   39) = (  -0.2250000   1.0000000   0.2250000), wk =   0.0246914
        k(   40) = (  -0.2375000   1.0000000   0.2375000), wk =   0.0246914
        k(   41) = (  -0.2500000   1.0000000   0.2500000), wk =   0.0246914
        k(   42) = (  -0.2375000   0.9875000   0.2750000), wk =   0.0246914
        k(   43) = (  -0.2250000   0.9750000   0.3000000), wk =   0.0246914
        k(   44) = (  -0.2125000   0.9625000   0.3250000), wk =   0.0246914
        k(   45) = (  -0.2000000   0.9500000   0.3500000), wk =   0.0246914
        k(   46) = (  -0.1875000   0.9375000   0.3750000), wk =   0.0246914
        k(   47) = (  -0.1750000   0.9250000   0.4000000), wk =   0.0246914
        k(   48) = (  -0.1625000   0.9125000   0.4250000), wk =   0.0246914
        k(   49) = (  -0.1500000   0.9000000   0.4500000), wk =   0.0246914
        k(   50) = (  -0.1375000   0.8875000   0.4750000), wk =   0.0246914
        k(   51) = (  -0.1250000   0.8750000   0.5000000), wk =   0.0246914
        k(   52) = (  -0.1125000   0.8625000   0.5250000), wk =   0.0246914
        k(   53) = (  -0.1000000   0.8500000   0.5500000), wk =   0.0246914
        k(   54) = (  -0.0875000   0.8375000   0.5750000), wk =   0.0246914
        k(   55) = (  -0.0750000   0.8250000   0.6000000), wk =   0.0246914
        k(   56) = (  -0.0625000   0.8125000   0.6250000), wk =   0.0246914
        k(   57) = (  -0.0500000   0.8000000   0.6500000), wk =   0.0246914
        k(   58) = (  -0.0375000   0.7875000   0.6750000), wk =   0.0246914
        k(   59) = (  -0.0250000   0.7750000   0.7000000), wk =   0.0246914
        k(   60) = (  -0.0125000   0.7625000   0.7250000), wk =   0.0246914
        k(   61) = (   0.0000000   0.7500000   0.7500000), wk =   0.0246914
        k(   62) = (   0.0000000   0.7125000   0.7125000), wk =   0.0246914
        k(   63) = (   0.0000000   0.6750000   0.6750000), wk =   0.0246914
        k(   64) = (   0.0000000   0.6375000   0.6375000), wk =   0.0246914
        k(   65) = (   0.0000000   0.6000000   0.6000000), wk =   0.0246914
        k(   66) = (   0.0000000   0.5625000   0.5625000), wk =   0.0246914
        k(   67) = (   0.0000000   0.5250000   0.5250000), wk =   0.0246914
        k(   68) = (   0.0000000   0.4875000   0.4875000), wk =   0.0246914
        k(   69) = (   0.0000000   0.4500000   0.4500000), wk =   0.0246914
        k(   70) = (   0.0000000   0.4125000   0.4125000), wk =   0.0246914
        k(   71) = (   0.0000000   0.3750000   0.3750000), wk =   0.0246914
        k(   72) = (   0.0000000   0.3375000   0.3375000), wk =   0.0246914
        k(   73) = (   0.0000000   0.3000000   0.3000000), wk =   0.0246914
        k(   74) = (   0.0000000   0.2625000   0.2625000), wk =   0.0246914
        k(   75) = (   0.0000000   0.2250000   0.2250000), wk =   0.0246914
        k(   76) = (   0.0000000   0.1875000   0.1875000), wk =   0.0246914
        k(   77) = (   0.0000000   0.1500000   0.1500000), wk =   0.0246914
        k(   78) = (   0.0000000   0.1125000   0.1125000), wk =   0.0246914
        k(   79) = (   0.0000000   0.0750000   0.0750000), wk =   0.0246914
        k(   80) = (   0.0000000   0.0375000   0.0375000), wk =   0.0246914
        k(   81) = (   0.0000000   0.0000000   0.0000000), wk =   0.0246914

     Dense  grid:     2733 G-vectors     FFT dimensions: (  20,  20,  20)

     Estimated max dynamical RAM per process >       1.24 MB

     The potential is recalculated from file :
     tmp/Si.save/charge-density

     Starting wfcs are    8 randomized atomic wfcs

     Band Structure Calculation
     Davidson diagonalization with overlap

     ethr =  1.25E-08,  avg # of iterations = 19.7

     total cpu time spent up to now is        2.6 secs

     End of band structure calculation

          k = 0.0000 0.0000 0.0000 (   331 PWs)   bands (ev):

    -5.7826   6.2927   6.2927   6.2927   8.8426   8.8426   8.8426   9.7602

          k = 0.0000 0.0500 0.0000 (   331 PWs)   bands (ev):

    -5.7714   6.2205   6.2437   6.2437   8.8138   8.9052   8.9052   9.8303

          k = 0.0000 0.1000 0.0000 (   335 PWs)   bands (ev):

    -5.7394   6.0187   6.1085   6.1085   8.7306   9.0792   9.0792  10.0208

          k = 0.0000 0.1500 0.0000 (   335 PWs)   bands (ev):

    -5.6839   5.7253   5.9172   5.9172   8.6030   9.3378   9.3378  10.2839

          k = 0.0000 0.2000 0.0000 (   335 PWs)   bands (ev):

    -5.6062   5.3714   5.6940   5.6940   8.4429   9.6547   9.6547  10.5550

          k = 0.0000 0.2500 0.0000 (   335 PWs)   bands (ev):

    -5.5065   4.9798   5.4570   5.4570   8.2625  10.0114  10.0114  10.7408

          k = 0.0000 0.3000 0.0000 (   335 PWs)   bands (ev):

    -5.3855   4.5639   5.2179   5.2179   8.0696  10.3963  10.3963  10.7327

          k = 0.0000 0.3500 0.0000 (   335 PWs)   bands (ev):

    -5.2423   4.1336   4.9831   4.9831   7.8772  10.5043  10.8012  10.8012

          k = 0.0000 0.4000 0.0000 (   347 PWs)   bands (ev):

    -5.0783   3.6898   4.7573   4.7573   7.6893  10.1532  11.2145  11.2145

          k = 0.0000 0.4500 0.0000 (   343 PWs)   bands (ev):

    -4.8914   3.2433   4.5444   4.5444   7.5118   9.7637  11.6479  11.6479

          k = 0.0000 0.5000 0.0000 (   343 PWs)   bands (ev):

    -4.6845   2.7929   4.3459   4.3459   7.3476   9.3678  12.0883  12.0883

          k = 0.0000 0.5500 0.0000 (   343 PWs)   bands (ev):

    -4.4569   2.3403   4.1634   4.1634   7.2000   8.9864  12.5364  12.5364

          k = 0.0000 0.6000 0.0000 (   339 PWs)   bands (ev):

    -4.2069   1.8875   3.9985   3.9985   7.0717   8.6287  12.9911  12.9911

          k = 0.0000 0.6500 0.0000 (   343 PWs)   bands (ev):

    -3.9395   1.4330   3.8507   3.8507   6.9640   8.2996  13.4467  13.4467

          k = 0.0000 0.7000 0.0000 (   335 PWs)   bands (ev):

    -3.6506   0.9850   3.7222   3.7222   6.8799   8.0038  13.9152  13.9152

          k = 0.0000 0.7500 0.0000 (   327 PWs)   bands (ev):

    -3.3453   0.5412   3.6133   3.6133   6.8197   7.7386  14.3874  14.3874

          k = 0.0000 0.8000 0.0000 (   335 PWs)   bands (ev):

    -3.0228   0.1022   3.5231   3.5231   6.7794   7.5057  14.8587  14.8587

          k = 0.0000 0.8500 0.0000 (   335 PWs)   bands (ev):

    -2.6822  -0.3292   3.4527   3.4527   6.7690   7.3064  15.3317  15.3317

          k = 0.0000 0.9000 0.0000 (   342 PWs)   bands (ev):

    -2.3253  -0.7538   3.4019   3.4019   6.7822   7.1404  15.7927  15.7927

          k = 0.0000 0.9500 0.0000 (   342 PWs)   bands (ev):

    -1.9528  -1.1658   3.3716   3.3716   6.8270   7.0052  16.2149  16.2149

          k = 0.0000 1.0000 0.0000 (   342 PWs)   bands (ev):

    -1.5659  -1.5659   3.3615   3.3615   6.9010   6.9010  16.4363  16.4363

          k =-0.0125 1.0000 0.0125 (   342 PWs)   bands (ev):

    -1.5664  -1.5645   3.3514   3.3626   6.9023   6.9155  16.4211  16.4278

          k =-0.0250 1.0000 0.0250 (   342 PWs)   bands (ev):

    -1.5679  -1.5600   3.3219   3.3660   6.9062   6.9585  16.3766  16.4026

          k =-0.0375 1.0000 0.0375 (   342 PWs)   bands (ev):

    -1.5704  -1.5526   3.2743   3.3716   6.9127   7.0286  16.3058  16.3616

          k =-0.0500 1.0000 0.0500 (   342 PWs)   bands (ev):

    -1.5740  -1.5421   3.2111   3.3795   6.9218   7.1234  16.2129  16.3062

          k =-0.0625 1.0000 0.0625 (   342 PWs)   bands (ev):

    -1.5788  -1.5288   3.1349   3.3897   6.9335   7.2405  16.1021  16.2378

          k =-0.0750 1.0000 0.0750 (   342 PWs)   bands (ev):

    -1.5851  -1.5124   3.0484   3.4020   6.9478   7.3772  15.9773  16.1582

          k =-0.0875 1.0000 0.0875 (   342 PWs)   bands (ev):

    -1.5929  -1.4931   2.9544   3.4166   6.9647   7.5310  15.8419  16.0691

          k =-0.1000 1.0000 0.1000 (   346 PWs)   bands (ev):

    -1.6028  -1.4711   2.8549   3.4334   6.9836   7.6994  15.6965  15.9718

          k =-0.1125 1.0000 0.1125 (   346 PWs)   bands (ev):

    -1.6145  -1.4458   2.7529   3.4524   7.0055   7.8810  15.5469  15.8680

          k =-0.1250 1.0000 0.1250 (   346 PWs)   bands (ev):

    -1.6285  -1.4176   2.6498   3.4736   7.0300   8.0737  15.3931  15.7588

          k =-0.1375 1.0000 0.1375 (   347 PWs)   bands (ev):

    -1.6454  -1.3864   2.5473   3.4970   7.0571   8.2745  15.2363  15.6452

          k =-0.1500 1.0000 0.1500 (   347 PWs)   bands (ev):

    -1.6651  -1.3522   2.4470   3.5225   7.0866   8.4856  15.0775  15.5282

          k =-0.1625 1.0000 0.1625 (   347 PWs)   bands (ev):

    -1.6881  -1.3151   2.3502   3.5501   7.1186   8.7042  14.9174  15.4084

          k =-0.1750 1.0000 0.1750 (   349 PWs)   bands (ev):

    -1.7142  -1.2770   2.2578   3.5792   7.1514   8.9318  14.7563  15.2888

          k =-0.1875 1.0000 0.1875 (   349 PWs)   bands (ev):

    -1.7448  -1.2340   2.1710   3.6110   7.1882   9.1632  14.5954  15.1653

          k =-0.2000 1.0000 0.2000 (   341 PWs)   bands (ev):

    -1.7787  -1.1863   2.0912   3.6452   7.2295   9.4002  14.4394  14.9982

          k =-0.2125 1.0000 0.2125 (   345 PWs)   bands (ev):

    -1.8187  -1.1375   2.0175   3.6807   7.2709   9.6412  14.2765  14.8271

          k =-0.2250 1.0000 0.2250 (   347 PWs)   bands (ev):

    -1.8641  -1.0857   1.9515   3.7184   7.3148   9.8871  14.1168  14.6594

          k =-0.2375 1.0000 0.2375 (   347 PWs)   bands (ev):

    -1.9131  -1.0309   1.8936   3.7582   7.3609  10.1367  13.9587  14.4946

          k =-0.2500 1.0000 0.2500 (   347 PWs)   bands (ev):

    -1.9670  -0.9733   1.8441   3.7998   7.4093  10.3895  13.8019  14.3327

          k =-0.2375 0.9875 0.2750 (   345 PWs)   bands (ev):

    -1.9972  -0.9401   1.8276   3.8002   7.4675  10.5199  13.6178  14.2472

          k =-0.2250 0.9750 0.3000 (   343 PWs)   bands (ev):

    -2.0292  -0.9028   1.8234   3.7614   7.5879  10.6559  13.2956  14.0004

          k =-0.2125 0.9625 0.3250 (   343 PWs)   bands (ev):

    -2.0621  -0.8642   1.8315   3.6905   7.7643  10.7954  12.9175  13.7428

          k =-0.2000 0.9500 0.3500 (   344 PWs)   bands (ev):

    -2.0933  -0.8273   1.8510   3.5971   7.9881  10.9338  12.5227  13.4989

          k =-0.1875 0.9375 0.3750 (   347 PWs)   bands (ev):

    -2.1223  -0.7932   1.8809   3.4913   8.2506  11.0591  12.1374  13.2656

          k =-0.1750 0.9250 0.4000 (   347 PWs)   bands (ev):

    -2.1464  -0.7636   1.9185   3.3830   8.5445  11.1297  11.8142  13.0431

          k =-0.1625 0.9125 0.4250 (   347 PWs)   bands (ev):

    -2.1655  -0.7399   1.9596   3.2820   8.8623  11.0100  11.6888  12.8322

          k =-0.1500 0.9000 0.4500 (   350 PWs)   bands (ev):

    -2.1805  -0.7227   1.9977   3.1982   9.1961  10.7025  11.7562  12.6370

          k =-0.1375 0.8875 0.4750 (   346 PWs)   bands (ev):

    -2.1891  -0.7110   2.0263   3.1421   9.5381  10.3534  11.8706  12.4771

          k =-0.1250 0.8750 0.5000 (   342 PWs)   bands (ev):

    -2.1914  -0.7068   2.0367   3.1225   9.7763  10.1107  11.9317  12.4069

          k =-0.1125 0.8625 0.5250 (   346 PWs)   bands (ev):

    -2.1891  -0.7110   2.0263   3.1421   9.5381  10.3534  11.8706  12.4771

          k =-0.1000 0.8500 0.5500 (   350 PWs)   bands (ev):

    -2.1805  -0.7227   1.9977   3.1982   9.1961  10.7025  11.7562  12.6370

          k =-0.0875 0.8375 0.5750 (   347 PWs)   bands (ev):

    -2.1655  -0.7399   1.9596   3.2820   8.8623  11.0100  11.6888  12.8322

          k =-0.0750 0.8250 0.6000 (   347 PWs)   bands (ev):

    -2.1464  -0.7636   1.9185   3.3830   8.5445  11.1297  11.8142  13.0431

          k =-0.0625 0.8125 0.6250 (   347 PWs)   bands (ev):

    -2.1223  -0.7932   1.8809   3.4913   8.2506  11.0591  12.1374  13.2656

          k =-0.0500 0.8000 0.6500 (   344 PWs)   bands (ev):

    -2.0933  -0.8273   1.8510   3.5971   7.9881  10.9338  12.5227  13.4989

          k =-0.0375 0.7875 0.6750 (   343 PWs)   bands (ev):

    -2.0621  -0.8642   1.8315   3.6905   7.7643  10.7954  12.9175  13.7428

          k =-0.0250 0.7750 0.7000 (   343 PWs)   bands (ev):

    -2.0292  -0.9028   1.8234   3.7614   7.5879  10.6559  13.2956  14.0004

          k =-0.0125 0.7625 0.7250 (   345 PWs)   bands (ev):

    -1.9972  -0.9401   1.8276   3.8002   7.4675  10.5199  13.6178  14.2472

          k = 0.0000 0.7500 0.7500 (   347 PWs)   bands (ev):

    -1.9670  -0.9733   1.8441   3.7998   7.4093  10.3895  13.8019  14.3327

          k = 0.0000 0.7125 0.7125 (   351 PWs)   bands (ev):

    -2.1581  -0.7831   1.7469   3.9354   7.5669  11.1559  13.3408  13.8697

          k = 0.0000 0.6750 0.6750 (   347 PWs)   bands (ev):

    -2.3879  -0.5653   1.7270   4.0867   7.7452  11.9124  12.8982  13.4731

          k = 0.0000 0.6375 0.6375 (   349 PWs)   bands (ev):

    -2.6478  -0.3231   1.7770   4.2510   7.9361  12.4452  12.4726  13.3355

          k = 0.0000 0.6000 0.6000 (   343 PWs)   bands (ev):

    -2.9270  -0.0521   1.8893   4.4267   8.1414  12.0690  12.3322  13.1454

          k = 0.0000 0.5625 0.5625 (   343 PWs)   bands (ev):

    -3.2175   0.2412   2.0535   4.6111   8.3540  11.6862  11.9976  12.8513

          k = 0.0000 0.5250 0.5250 (   343 PWs)   bands (ev):

    -3.5076   0.5598   2.2615   4.8011   8.5692  11.3249  11.6468  12.5871

          k = 0.0000 0.4875 0.4875 (   339 PWs)   bands (ev):

    -3.7916   0.9037   2.5070   4.9931   8.7797  10.9870  11.3089  12.3606

          k = 0.0000 0.4500 0.4500 (   339 PWs)   bands (ev):

    -4.0657   1.2711   2.7845   5.1833   8.9744  10.6725  10.9885  12.1789

          k = 0.0000 0.4125 0.4125 (   337 PWs)   bands (ev):

    -4.3263   1.6620   3.0889   5.3671   9.1417  10.3825  10.6904  12.0497

          k = 0.0000 0.3750 0.3750 (   339 PWs)   bands (ev):

    -4.5693   2.0766   3.4153   5.5380   9.2676  10.1166  10.4150  11.9727

          k = 0.0000 0.3375 0.3375 (   341 PWs)   bands (ev):

    -4.7939   2.5108   3.7602   5.6965   9.3476   9.8752  10.1571  11.9452

          k = 0.0000 0.3000 0.3000 (   333 PWs)   bands (ev):

    -4.9962   2.9664   4.1193   5.8381   9.3810   9.6626   9.9233  11.9396

          k = 0.0000 0.2625 0.2625 (   337 PWs)   bands (ev):

    -5.1787   3.4385   4.4845   5.9584   9.3731   9.4709   9.7062  11.8943

          k = 0.0000 0.2250 0.2250 (   331 PWs)   bands (ev):

    -5.3370   3.9280   4.8500   6.0580   9.3051   9.3403   9.5133  11.7326

          k = 0.0000 0.1875 0.1875 (   335 PWs)   bands (ev):

    -5.4725   4.4239   5.2057   6.1367   9.1638   9.2848   9.3375  11.4061

          k = 0.0000 0.1500 0.1500 (   333 PWs)   bands (ev):

    -5.5838   4.9207   5.5406   6.1972   9.0483   9.1820   9.2189  10.9646

          k = 0.0000 0.1125 0.1125 (   333 PWs)   bands (ev):

    -5.6708   5.4016   5.8383   6.2411   8.9583   9.0476   9.1368  10.4980

          k = 0.0000 0.0750 0.0750 (   333 PWs)   bands (ev):

    -5.7332   5.8360   6.0781   6.2705   8.8941   8.9398   9.0299  10.0978

          k = 0.0000 0.0375 0.0375 (   333 PWs)   bands (ev):

    -5.7707   6.1635   6.2364   6.2873   8.8555   8.8679   8.9060   9.8427

          k = 0.0000 0.0000 0.0000 (   331 PWs)   bands (ev):

    -5.7826   6.2927   6.2927   6.2927   8.8426   8.8426   8.8426   9.7602

     Writing all to output data dir tmp/Si.save/

     init_run     :      0.02s CPU      0.02s WALL (       1 calls)
     electrons    :      2.31s CPU      2.41s WALL (       1 calls)

     Called by init_run:
     wfcinit      :      0.00s CPU      0.00s WALL (       1 calls)
     potinit      :      0.00s CPU      0.00s WALL (       1 calls)
     hinit0       :      0.01s CPU      0.01s WALL (       1 calls)

     Called by electrons:
     c_bands      :      2.31s CPU      2.41s WALL (       1 calls)
     v_of_rho     :      0.00s CPU      0.00s WALL (       1 calls)

     Called by c_bands:
     init_us_2    :      0.00s CPU      0.00s WALL (      81 calls)
     init_us_2:cp :      0.00s CPU      0.00s WALL (      81 calls)
     cegterg      :      2.15s CPU      2.25s WALL (     109 calls)

     Called by *egterg:
     cdiaghg      :      0.17s CPU      0.18s WALL (    1677 calls)
     h_psi        :      1.69s CPU      1.76s WALL (    1786 calls)
     g_psi        :      0.02s CPU      0.02s WALL (    1596 calls)

     Called by h_psi:
     h_psi:calbec :      0.03s CPU      0.04s WALL (    1786 calls)
     vloc_psi     :      1.58s CPU      1.63s WALL (    1786 calls)
     add_vuspsi   :      0.06s CPU      0.07s WALL (    1786 calls)

     General routines
     calbec       :      0.03s CPU      0.04s WALL (    1786 calls)
     fft          :      0.00s CPU      0.00s WALL (       3 calls)
     fftw         :      1.39s CPU      1.43s WALL (   18246 calls)
     davcio       :      0.00s CPU      0.01s WALL (     162 calls)

     Parallel routines

     PWSCF        :      2.49s CPU      2.66s WALL


   This run was terminated on:   9:31:20   7Jun2023            

=------------------------------------------------------------------------------=
   JOB DONE.
=------------------------------------------------------------------------------=
