
     Program PWSCF v.7.1 starts on  7Jun2023 at  9:31: 3 

     This program is part of the open-source Quantum ESPRESSO suite
     for quantum simulation of materials; please cite
         "P. Giannozzi et al., J. Phys.:Condens. Matter 21 395502 (2009);
         "P. Giannozzi et al., J. Phys.:Condens. Matter 29 465901 (2017);
         "P. Giannozzi et al., J. Chem. Phys. 152 154105 (2020);
          URL http://www.quantum-espresso.org", 
     in publications or presentations arising from this work. More details at
     http://www.quantum-espresso.org/quote

     Parallel version (MPI), running on     1 processors

     MPI processes distributed on     1 nodes
     0 MiB available memory on the printing compute node when the environment starts

     Waiting for input...
     Reading input from standard input

     Current dimensions of program PWSCF are:
     Max number of different atomic species (ntypx) = 10
     Max number of k-points (npk) =  40000
     Max angular momentum in pseudopotentials (lmaxx) =  4

     Subspace diagonalization in iterative solution of the eigenvalue problem:
     a serial algorithm will be used


     G-vector sticks info
     --------------------
     sticks:   dense  smooth     PW     G-vecs:    dense   smooth      PW
     Sum         253     253     85                 2733     2733     537

     Using Slab Decomposition



     bravais-lattice index     =            2
     lattice parameter (alat)  =      10.2000  a.u.
     unit-cell volume          =     265.3020 (a.u.)^3
     number of atoms/cell      =            2
     number of atomic types    =            1
     number of electrons       =         8.00
     number of Kohn-Sham states=            8
     kinetic-energy cutoff     =      18.0000  Ry
     charge density cutoff     =      72.0000  Ry
     scf convergence threshold =      1.0E-08
     mixing beta               =       0.7000
     number of iterations used =            8  plain     mixing
     Exchange-correlation= SLA  PZ   NOGX NOGC
                           (   1   1   0   0   0   0   0)

     celldm(1)=  10.200000  celldm(2)=   0.000000  celldm(3)=   0.000000
     celldm(4)=   0.000000  celldm(5)=   0.000000  celldm(6)=   0.000000

     crystal axes: (cart. coord. in units of alat)
               a(1) = (  -0.500000   0.000000   0.500000 )  
               a(2) = (   0.000000   0.500000   0.500000 )  
               a(3) = (  -0.500000   0.500000   0.000000 )  

     reciprocal axes: (cart. coord. in units 2 pi/alat)
               b(1) = ( -1.000000 -1.000000  1.000000 )  
               b(2) = (  1.000000  1.000000  1.000000 )  
               b(3) = ( -1.000000  1.000000 -1.000000 )  


     PseudoPot. # 1 for Si read from file:
     ./Si.pz-vbc.UPF
     MD5 check sum: 9f25e6ff280f3123e9b3a84715b2e9c9
     Pseudo is Norm-conserving, Zval =  4.0
     Generated by new atomic code, or converted to UPF format
     Using radial grid of  431 points,  2 beta functions with: 
                l(1) =   0
                l(2) =   1

     atomic species   valence    mass     pseudopotential
        Si             4.00    28.08600     Si( 1.00)

     48 Sym. Ops., with inversion, found (24 have fractional translation)



   Cartesian axes

     site n.     atom                  positions (alat units)
         1           Si  tau(   1) = (   0.0000000   0.0000000   0.0000000  )
         2           Si  tau(   2) = (   0.2500000   0.2500000   0.2500000  )

     number of k points=     8  Methfessel-Paxton smearing, width (Ry)=  0.0500
                       cart. coord. in units 2pi/alat
        k(    1) = (   0.0000000   0.0000000   0.0000000), wk =   0.0312500
        k(    2) = (  -0.2500000   0.2500000  -0.2500000), wk =   0.2500000
        k(    3) = (   0.5000000  -0.5000000   0.5000000), wk =   0.1250000
        k(    4) = (   0.0000000   0.5000000   0.0000000), wk =   0.1875000
        k(    5) = (   0.7500000  -0.2500000   0.7500000), wk =   0.7500000
        k(    6) = (   0.5000000   0.0000000   0.5000000), wk =   0.3750000
        k(    7) = (   0.0000000  -1.0000000   0.0000000), wk =   0.0937500
        k(    8) = (  -0.5000000  -1.0000000   0.0000000), wk =   0.1875000

     Dense  grid:     2733 G-vectors     FFT dimensions: (  20,  20,  20)

     Estimated max dynamical RAM per process >       2.34 MB

     Initial potential from superposition of free atoms

     starting charge       7.9990, renormalised to       8.0000
     Starting wfcs are    8 randomized atomic wfcs

     total cpu time spent up to now is        0.1 secs

     Self-consistent Calculation

     iteration #  1     ecut=    18.00 Ry     beta= 0.70
     Davidson diagonalization with overlap
     ethr =  1.00E-02,  avg # of iterations =  3.8

     Threshold (ethr) on eigenvalues was too large:
     Diagonalizing with lowered threshold

     Davidson diagonalization with overlap
     ethr =  7.96E-04,  avg # of iterations =  1.1

     total cpu time spent up to now is        0.2 secs

     total energy              =     -15.82568385 Ry
     estimated scf accuracy    <       0.06815687 Ry

     iteration #  2     ecut=    18.00 Ry     beta= 0.70
     Davidson diagonalization with overlap
     ethr =  8.52E-04,  avg # of iterations =  1.0

     total cpu time spent up to now is        0.2 secs

     total energy              =     -15.82979232 Ry
     estimated scf accuracy    <       0.00201335 Ry

     iteration #  3     ecut=    18.00 Ry     beta= 0.70
     Davidson diagonalization with overlap
     ethr =  2.52E-05,  avg # of iterations =  2.6

     total cpu time spent up to now is        0.3 secs

     total energy              =     -15.82989676 Ry
     estimated scf accuracy    <       0.00006355 Ry

     iteration #  4     ecut=    18.00 Ry     beta= 0.70
     Davidson diagonalization with overlap
     ethr =  7.94E-07,  avg # of iterations =  2.1

     total cpu time spent up to now is        0.3 secs

     total energy              =     -15.82990336 Ry
     estimated scf accuracy    <       0.00000005 Ry

     iteration #  5     ecut=    18.00 Ry     beta= 0.70
     Davidson diagonalization with overlap
     ethr =  5.97E-10,  avg # of iterations =  4.1

     total cpu time spent up to now is        0.4 secs

     End of self-consistent calculation

          k = 0.0000 0.0000 0.0000 (   331 PWs)   bands (ev):

    -5.7824   6.2929   6.2929   6.2929   8.8427   8.8427   8.8427   9.7604

          k =-0.2500 0.2500-0.2500 (   344 PWs)   bands (ev):

    -4.9697   2.3179   5.5102   5.5102   8.3319   9.7979   9.7979  13.2047

          k = 0.5000-0.5000 0.5000 (   344 PWs)   bands (ev):

    -3.3859  -0.7975   5.0631   5.0631   7.8401   9.6133   9.6133  13.8413

          k = 0.0000 0.5000 0.0000 (   343 PWs)   bands (ev):

    -4.6843   2.7931   4.3460   4.3460   7.3477   9.3679  12.0885  12.0885

          k = 0.7500-0.2500 0.7500 (   346 PWs)   bands (ev):

    -3.0075  -0.1381   2.6586   4.0256   7.7378  10.7066  12.0665  12.2377

          k = 0.5000 0.0000 0.5000 (   339 PWs)   bands (ev):

    -3.6976   0.7867   2.4214   4.9293   8.7109  11.0972  11.4201  12.4316

          k = 0.0000-1.0000 0.0000 (   342 PWs)   bands (ev):

    -1.5658  -1.5658   3.3616   3.3616   6.9010   6.9010  16.4365  16.4365

          k =-0.5000-1.0000 0.0000 (   360 PWs)   bands (ev):

    -1.3876  -1.3876   2.3070   2.3070  10.5067  10.5067  11.3144  11.3144

     the Fermi energy is     6.5634 ev

!    total energy              =     -15.82990366 Ry
     estimated scf accuracy    <          9.8E-09 Ry
     smearing contrib. (-TS)   =       0.00261246 Ry
     internal energy E=F+TS    =     -15.83251611 Ry

     The total energy is F=E-TS. E is the sum of the following terms:
     one-electron contribution =       4.79384927 Ry
     hartree contribution      =       1.09668795 Ry
     xc contribution           =      -4.82329467 Ry
     ewald contribution        =     -16.89975867 Ry

     convergence has been achieved in   5 iterations

     Forces acting on atoms (cartesian axes, Ry/au):

     atom    1 type  1   force =     0.00000000   -0.00000000    0.00000000
     atom    2 type  1   force =     0.00000000    0.00000000    0.00000000

     Total force =     0.000000     Total SCF correction =     0.000000


     Computing stress (Cartesian axis) and pressure

          total   stress  (Ry/bohr**3)                   (kbar)     P=       -5.60
  -0.00003809  -0.00000000  -0.00000000           -5.60       -0.00       -0.00
  -0.00000000  -0.00003809   0.00000000           -0.00       -5.60        0.00
  -0.00000000   0.00000000  -0.00003809           -0.00        0.00       -5.60


     Writing all to output data dir tmp/Si.save/

     init_run     :      0.03s CPU      0.05s WALL (       1 calls)
     electrons    :      0.27s CPU      0.29s WALL (       1 calls)
     forces       :      0.00s CPU      0.00s WALL (       1 calls)
     stress       :      0.01s CPU      0.01s WALL (       1 calls)

     Called by init_run:
     wfcinit      :      0.01s CPU      0.02s WALL (       1 calls)
     potinit      :      0.00s CPU      0.00s WALL (       1 calls)
     hinit0       :      0.01s CPU      0.01s WALL (       1 calls)

     Called by electrons:
     c_bands      :      0.23s CPU      0.24s WALL (       6 calls)
     sum_band     :      0.04s CPU      0.04s WALL (       6 calls)
     v_of_rho     :      0.00s CPU      0.01s WALL (       6 calls)
     mix_rho      :      0.00s CPU      0.00s WALL (       6 calls)

     Called by c_bands:
     init_us_2    :      0.01s CPU      0.01s WALL (     120 calls)
     init_us_2:cp :      0.01s CPU      0.01s WALL (     120 calls)
     cegterg      :      0.22s CPU      0.23s WALL (      48 calls)

     Called by *egterg:
     cdiaghg      :      0.01s CPU      0.01s WALL (     158 calls)
     h_psi        :      0.19s CPU      0.20s WALL (     174 calls)
     g_psi        :      0.00s CPU      0.00s WALL (     118 calls)

     Called by h_psi:
     h_psi:calbec :      0.00s CPU      0.01s WALL (     174 calls)
     vloc_psi     :      0.18s CPU      0.18s WALL (     174 calls)
     add_vuspsi   :      0.01s CPU      0.01s WALL (     174 calls)

     General routines
     calbec       :      0.00s CPU      0.01s WALL (     214 calls)
     fft          :      0.00s CPU      0.00s WALL (      23 calls)
     ffts         :      0.00s CPU      0.00s WALL (       6 calls)
     fftw         :      0.18s CPU      0.18s WALL (    2512 calls)

     Parallel routines

     PWSCF        :      0.34s CPU      0.43s WALL


   This run was terminated on:   9:31: 3   7Jun2023            

=------------------------------------------------------------------------------=
   JOB DONE.
=------------------------------------------------------------------------------=
